phonopy:
  version: 2.12.0
  frequency_unit_conversion_factor: 15.633302
  symmetry_tolerance: 1.00000e-05
  configuration:
    cell_filename: "phonopy_cells.yaml"
    qpoints: "0 0 0"
    read_force_constants: ".true."
    readfc_format: "hdf5"
    hdf5: ".true."
    writedm: ".true."

physical_unit:
  atomic_mass: "AMU"
  length: "angstrom"
  force_constants: "eV/angstrom^2"

space_group:
  type: "R3m"
  number: 160
  Hall_symbol: "R 3 -2\""

primitive_matrix:
- [ -0.000000000000000,  0.000000000000000,  1.000000000000000 ]
- [  1.000000000000000,  0.000000000000000,  0.000000000000000 ]
- [  0.000000000000000,  1.000000000000000,  0.000000000000000 ]

supercell_matrix:
- [   3,   0,   0 ]
- [   0,   3,   0 ]
- [   0,   0,   3 ]

primitive_cell:
  lattice:
  - [     2.828848813028600,     2.821619212346400,     0.000000550189085 ] # a
  - [     0.014439948993996,     0.000000000000000,     3.995461252695700 ] # b
  - [     2.828848813028600,    -2.821619212346400,     0.000000550189085 ] # c
  points:
  - symbol: Ba # 1
    coordinates: [  0.998552630310517,  0.998552481563971,  0.998552630310517 ]
    mass: 137.327000
  - symbol: Ti # 2
    coordinates: [  0.510341661449619,  0.510341646003612,  0.510341661449619 ]
    mass: 47.867000
  - symbol: O  # 3
    coordinates: [  0.486552359049342,  0.979501044871243,  0.486552359049342 ]
    mass: 15.999400
  - symbol: O  # 4
    coordinates: [  0.979500980342980,  0.486552413958826,  0.486552368751997 ]
    mass: 15.999400
  - symbol: O  # 5
    coordinates: [  0.486552368751997,  0.486552413958826,  0.979500980342980 ]
    mass: 15.999400
  reciprocal_lattice: # without 2pi
  - [     0.176750343831967,     0.177203216441176,    -0.000638791315492 ] # a*
  - [    -0.000000048678290,    -0.000000000000000,     0.250283994126641 ] # b*
  - [     0.176750343831967,    -0.177203216441176,    -0.000638791315492 ] # c*

unit_cell:
  lattice:
  - [     2.828848813028600,    -2.821619212346400,     0.000000550189085 ] # a
  - [     2.828848813028600,     2.821619212346400,     0.000000550189085 ] # b
  - [     0.014439948993996,     0.000000000000000,     3.995461252695700 ] # c
  points:
  - symbol: Ba # 1
    coordinates: [  0.998552630310517,  0.998552630310517,  0.998552481563971 ]
    mass: 137.327000
    reduced_to: 1
  - symbol: Ti # 2
    coordinates: [  0.510341661449619,  0.510341661449619,  0.510341646003612 ]
    mass: 47.867000
    reduced_to: 2
  - symbol: O  # 3
    coordinates: [  0.486552359049342,  0.486552359049342,  0.979501044871243 ]
    mass: 15.999400
    reduced_to: 3
  - symbol: O  # 4
    coordinates: [  0.486552368751997,  0.979500980342980,  0.486552413958826 ]
    mass: 15.999400
    reduced_to: 4
  - symbol: O  # 5
    coordinates: [  0.979500980342980,  0.486552368751997,  0.486552413958826 ]
    mass: 15.999400
    reduced_to: 5

supercell:
  lattice:
  - [     8.486546439085799,    -8.464857637039200,     0.000001650567255 ] # a
  - [     8.486546439085799,     8.464857637039200,     0.000001650567255 ] # b
  - [     0.043319846981988,     0.000000000000000,    11.986383758087101 ] # c
  points:
  - symbol: Ba # 1
    coordinates: [  0.332850876770172,  0.332850876770172,  0.332850827187990 ]
    mass: 137.327000
    reduced_to: 1
  - symbol: Ba # 2
    coordinates: [  0.666184210103506,  0.332850876770172,  0.332850827187990 ]
    mass: 137.327000
    reduced_to: 1
  - symbol: Ba # 3
    coordinates: [  0.999517543436839,  0.332850876770172,  0.332850827187990 ]
    mass: 137.327000
    reduced_to: 1
  - symbol: Ba # 4
    coordinates: [  0.332850876770172,  0.666184210103506,  0.332850827187990 ]
    mass: 137.327000
    reduced_to: 1
  - symbol: Ba # 5
    coordinates: [  0.666184210103506,  0.666184210103506,  0.332850827187990 ]
    mass: 137.327000
    reduced_to: 1
  - symbol: Ba # 6
    coordinates: [  0.999517543436839,  0.666184210103506,  0.332850827187990 ]
    mass: 137.327000
    reduced_to: 1
  - symbol: Ba # 7
    coordinates: [  0.332850876770172,  0.999517543436839,  0.332850827187990 ]
    mass: 137.327000
    reduced_to: 1
  - symbol: Ba # 8
    coordinates: [  0.666184210103506,  0.999517543436839,  0.332850827187990 ]
    mass: 137.327000
    reduced_to: 1
  - symbol: Ba # 9
    coordinates: [  0.999517543436839,  0.999517543436839,  0.332850827187990 ]
    mass: 137.327000
    reduced_to: 1
  - symbol: Ba # 10
    coordinates: [  0.332850876770172,  0.332850876770172,  0.666184160521324 ]
    mass: 137.327000
    reduced_to: 1
  - symbol: Ba # 11
    coordinates: [  0.666184210103506,  0.332850876770172,  0.666184160521324 ]
    mass: 137.327000
    reduced_to: 1
  - symbol: Ba # 12
    coordinates: [  0.999517543436839,  0.332850876770172,  0.666184160521324 ]
    mass: 137.327000
    reduced_to: 1
  - symbol: Ba # 13
    coordinates: [  0.332850876770172,  0.666184210103506,  0.666184160521324 ]
    mass: 137.327000
    reduced_to: 1
  - symbol: Ba # 14
    coordinates: [  0.666184210103506,  0.666184210103506,  0.666184160521324 ]
    mass: 137.327000
    reduced_to: 1
  - symbol: Ba # 15
    coordinates: [  0.999517543436839,  0.666184210103506,  0.666184160521324 ]
    mass: 137.327000
    reduced_to: 1
  - symbol: Ba # 16
    coordinates: [  0.332850876770172,  0.999517543436839,  0.666184160521324 ]
    mass: 137.327000
    reduced_to: 1
  - symbol: Ba # 17
    coordinates: [  0.666184210103506,  0.999517543436839,  0.666184160521324 ]
    mass: 137.327000
    reduced_to: 1
  - symbol: Ba # 18
    coordinates: [  0.999517543436839,  0.999517543436839,  0.666184160521324 ]
    mass: 137.327000
    reduced_to: 1
  - symbol: Ba # 19
    coordinates: [  0.332850876770172,  0.332850876770172,  0.999517493854657 ]
    mass: 137.327000
    reduced_to: 1
  - symbol: Ba # 20
    coordinates: [  0.666184210103506,  0.332850876770172,  0.999517493854657 ]
    mass: 137.327000
    reduced_to: 1
  - symbol: Ba # 21
    coordinates: [  0.999517543436839,  0.332850876770172,  0.999517493854657 ]
    mass: 137.327000
    reduced_to: 1
  - symbol: Ba # 22
    coordinates: [  0.332850876770172,  0.666184210103506,  0.999517493854657 ]
    mass: 137.327000
    reduced_to: 1
  - symbol: Ba # 23
    coordinates: [  0.666184210103506,  0.666184210103506,  0.999517493854657 ]
    mass: 137.327000
    reduced_to: 1
  - symbol: Ba # 24
    coordinates: [  0.999517543436839,  0.666184210103506,  0.999517493854657 ]
    mass: 137.327000
    reduced_to: 1
  - symbol: Ba # 25
    coordinates: [  0.332850876770172,  0.999517543436839,  0.999517493854657 ]
    mass: 137.327000
    reduced_to: 1
  - symbol: Ba # 26
    coordinates: [  0.666184210103506,  0.999517543436839,  0.999517493854657 ]
    mass: 137.327000
    reduced_to: 1
  - symbol: Ba # 27
    coordinates: [  0.999517543436839,  0.999517543436839,  0.999517493854657 ]
    mass: 137.327000
    reduced_to: 1
  - symbol: Ti # 28
    coordinates: [  0.170113887149873,  0.170113887149873,  0.170113882001204 ]
    mass: 47.867000
    reduced_to: 28
  - symbol: Ti # 29
    coordinates: [  0.503447220483206,  0.170113887149873,  0.170113882001204 ]
    mass: 47.867000
    reduced_to: 28
  - symbol: Ti # 30
    coordinates: [  0.836780553816540,  0.170113887149873,  0.170113882001204 ]
    mass: 47.867000
    reduced_to: 28
  - symbol: Ti # 31
    coordinates: [  0.170113887149873,  0.503447220483206,  0.170113882001204 ]
    mass: 47.867000
    reduced_to: 28
  - symbol: Ti # 32
    coordinates: [  0.503447220483206,  0.503447220483206,  0.170113882001204 ]
    mass: 47.867000
    reduced_to: 28
  - symbol: Ti # 33
    coordinates: [  0.836780553816540,  0.503447220483206,  0.170113882001204 ]
    mass: 47.867000
    reduced_to: 28
  - symbol: Ti # 34
    coordinates: [  0.170113887149873,  0.836780553816540,  0.170113882001204 ]
    mass: 47.867000
    reduced_to: 28
  - symbol: Ti # 35
    coordinates: [  0.503447220483206,  0.836780553816540,  0.170113882001204 ]
    mass: 47.867000
    reduced_to: 28
  - symbol: Ti # 36
    coordinates: [  0.836780553816540,  0.836780553816540,  0.170113882001204 ]
    mass: 47.867000
    reduced_to: 28
  - symbol: Ti # 37
    coordinates: [  0.170113887149873,  0.170113887149873,  0.503447215334537 ]
    mass: 47.867000
    reduced_to: 28
  - symbol: Ti # 38
    coordinates: [  0.503447220483206,  0.170113887149873,  0.503447215334537 ]
    mass: 47.867000
    reduced_to: 28
  - symbol: Ti # 39
    coordinates: [  0.836780553816540,  0.170113887149873,  0.503447215334537 ]
    mass: 47.867000
    reduced_to: 28
  - symbol: Ti # 40
    coordinates: [  0.170113887149873,  0.503447220483206,  0.503447215334537 ]
    mass: 47.867000
    reduced_to: 28
  - symbol: Ti # 41
    coordinates: [  0.503447220483206,  0.503447220483206,  0.503447215334537 ]
    mass: 47.867000
    reduced_to: 28
  - symbol: Ti # 42
    coordinates: [  0.836780553816540,  0.503447220483206,  0.503447215334537 ]
    mass: 47.867000
    reduced_to: 28
  - symbol: Ti # 43
    coordinates: [  0.170113887149873,  0.836780553816540,  0.503447215334537 ]
    mass: 47.867000
    reduced_to: 28
  - symbol: Ti # 44
    coordinates: [  0.503447220483206,  0.836780553816540,  0.503447215334537 ]
    mass: 47.867000
    reduced_to: 28
  - symbol: Ti # 45
    coordinates: [  0.836780553816540,  0.836780553816540,  0.503447215334537 ]
    mass: 47.867000
    reduced_to: 28
  - symbol: Ti # 46
    coordinates: [  0.170113887149873,  0.170113887149873,  0.836780548667871 ]
    mass: 47.867000
    reduced_to: 28
  - symbol: Ti # 47
    coordinates: [  0.503447220483206,  0.170113887149873,  0.836780548667871 ]
    mass: 47.867000
    reduced_to: 28
  - symbol: Ti # 48
    coordinates: [  0.836780553816540,  0.170113887149873,  0.836780548667871 ]
    mass: 47.867000
    reduced_to: 28
  - symbol: Ti # 49
    coordinates: [  0.170113887149873,  0.503447220483206,  0.836780548667871 ]
    mass: 47.867000
    reduced_to: 28
  - symbol: Ti # 50
    coordinates: [  0.503447220483206,  0.503447220483206,  0.836780548667871 ]
    mass: 47.867000
    reduced_to: 28
  - symbol: Ti # 51
    coordinates: [  0.836780553816540,  0.503447220483206,  0.836780548667871 ]
    mass: 47.867000
    reduced_to: 28
  - symbol: Ti # 52
    coordinates: [  0.170113887149873,  0.836780553816540,  0.836780548667871 ]
    mass: 47.867000
    reduced_to: 28
  - symbol: Ti # 53
    coordinates: [  0.503447220483206,  0.836780553816540,  0.836780548667871 ]
    mass: 47.867000
    reduced_to: 28
  - symbol: Ti # 54
    coordinates: [  0.836780553816540,  0.836780553816540,  0.836780548667871 ]
    mass: 47.867000
    reduced_to: 28
  - symbol: O  # 55
    coordinates: [  0.162184119683114,  0.162184119683114,  0.326500348290414 ]
    mass: 15.999400
    reduced_to: 55
  - symbol: O  # 56
    coordinates: [  0.495517453016447,  0.162184119683114,  0.326500348290414 ]
    mass: 15.999400
    reduced_to: 55
  - symbol: O  # 57
    coordinates: [  0.828850786349781,  0.162184119683114,  0.326500348290414 ]
    mass: 15.999400
    reduced_to: 55
  - symbol: O  # 58
    coordinates: [  0.162184119683114,  0.495517453016447,  0.326500348290414 ]
    mass: 15.999400
    reduced_to: 55
  - symbol: O  # 59
    coordinates: [  0.495517453016447,  0.495517453016447,  0.326500348290414 ]
    mass: 15.999400
    reduced_to: 55
  - symbol: O  # 60
    coordinates: [  0.828850786349781,  0.495517453016447,  0.326500348290414 ]
    mass: 15.999400
    reduced_to: 55
  - symbol: O  # 61
    coordinates: [  0.162184119683114,  0.828850786349781,  0.326500348290414 ]
    mass: 15.999400
    reduced_to: 55
  - symbol: O  # 62
    coordinates: [  0.495517453016447,  0.828850786349781,  0.326500348290414 ]
    mass: 15.999400
    reduced_to: 55
  - symbol: O  # 63
    coordinates: [  0.828850786349781,  0.828850786349781,  0.326500348290414 ]
    mass: 15.999400
    reduced_to: 55
  - symbol: O  # 64
    coordinates: [  0.162184119683114,  0.162184119683114,  0.659833681623748 ]
    mass: 15.999400
    reduced_to: 55
  - symbol: O  # 65
    coordinates: [  0.495517453016447,  0.162184119683114,  0.659833681623748 ]
    mass: 15.999400
    reduced_to: 55
  - symbol: O  # 66
    coordinates: [  0.828850786349781,  0.162184119683114,  0.659833681623748 ]
    mass: 15.999400
    reduced_to: 55
  - symbol: O  # 67
    coordinates: [  0.162184119683114,  0.495517453016447,  0.659833681623748 ]
    mass: 15.999400
    reduced_to: 55
  - symbol: O  # 68
    coordinates: [  0.495517453016447,  0.495517453016447,  0.659833681623748 ]
    mass: 15.999400
    reduced_to: 55
  - symbol: O  # 69
    coordinates: [  0.828850786349781,  0.495517453016447,  0.659833681623748 ]
    mass: 15.999400
    reduced_to: 55
  - symbol: O  # 70
    coordinates: [  0.162184119683114,  0.828850786349781,  0.659833681623748 ]
    mass: 15.999400
    reduced_to: 55
  - symbol: O  # 71
    coordinates: [  0.495517453016447,  0.828850786349781,  0.659833681623748 ]
    mass: 15.999400
    reduced_to: 55
  - symbol: O  # 72
    coordinates: [  0.828850786349781,  0.828850786349781,  0.659833681623748 ]
    mass: 15.999400
    reduced_to: 55
  - symbol: O  # 73
    coordinates: [  0.162184119683114,  0.162184119683114,  0.993167014957081 ]
    mass: 15.999400
    reduced_to: 55
  - symbol: O  # 74
    coordinates: [  0.495517453016447,  0.162184119683114,  0.993167014957081 ]
    mass: 15.999400
    reduced_to: 55
  - symbol: O  # 75
    coordinates: [  0.828850786349781,  0.162184119683114,  0.993167014957081 ]
    mass: 15.999400
    reduced_to: 55
  - symbol: O  # 76
    coordinates: [  0.162184119683114,  0.495517453016447,  0.993167014957081 ]
    mass: 15.999400
    reduced_to: 55
  - symbol: O  # 77
    coordinates: [  0.495517453016447,  0.495517453016447,  0.993167014957081 ]
    mass: 15.999400
    reduced_to: 55
  - symbol: O  # 78
    coordinates: [  0.828850786349781,  0.495517453016447,  0.993167014957081 ]
    mass: 15.999400
    reduced_to: 55
  - symbol: O  # 79
    coordinates: [  0.162184119683114,  0.828850786349781,  0.993167014957081 ]
    mass: 15.999400
    reduced_to: 55
  - symbol: O  # 80
    coordinates: [  0.495517453016447,  0.828850786349781,  0.993167014957081 ]
    mass: 15.999400
    reduced_to: 55
  - symbol: O  # 81
    coordinates: [  0.828850786349781,  0.828850786349781,  0.993167014957081 ]
    mass: 15.999400
    reduced_to: 55
  - symbol: O  # 82
    coordinates: [  0.162184122917332,  0.326500326780993,  0.162184137986275 ]
    mass: 15.999400
    reduced_to: 82
  - symbol: O  # 83
    coordinates: [  0.495517456250666,  0.326500326780993,  0.162184137986275 ]
    mass: 15.999400
    reduced_to: 82
  - symbol: O  # 84
    coordinates: [  0.828850789583999,  0.326500326780993,  0.162184137986275 ]
    mass: 15.999400
    reduced_to: 82
  - symbol: O  # 85
    coordinates: [  0.162184122917332,  0.659833660114327,  0.162184137986275 ]
    mass: 15.999400
    reduced_to: 82
  - symbol: O  # 86
    coordinates: [  0.495517456250666,  0.659833660114327,  0.162184137986275 ]
    mass: 15.999400
    reduced_to: 82
  - symbol: O  # 87
    coordinates: [  0.828850789583999,  0.659833660114327,  0.162184137986275 ]
    mass: 15.999400
    reduced_to: 82
  - symbol: O  # 88
    coordinates: [  0.162184122917332,  0.993166993447660,  0.162184137986275 ]
    mass: 15.999400
    reduced_to: 82
  - symbol: O  # 89
    coordinates: [  0.495517456250666,  0.993166993447660,  0.162184137986275 ]
    mass: 15.999400
    reduced_to: 82
  - symbol: O  # 90
    coordinates: [  0.828850789583999,  0.993166993447660,  0.162184137986275 ]
    mass: 15.999400
    reduced_to: 82
  - symbol: O  # 91
    coordinates: [  0.162184122917332,  0.326500326780993,  0.495517471319609 ]
    mass: 15.999400
    reduced_to: 82
  - symbol: O  # 92
    coordinates: [  0.495517456250666,  0.326500326780993,  0.495517471319609 ]
    mass: 15.999400
    reduced_to: 82
  - symbol: O  # 93
    coordinates: [  0.828850789583999,  0.326500326780993,  0.495517471319609 ]
    mass: 15.999400
    reduced_to: 82
  - symbol: O  # 94
    coordinates: [  0.162184122917332,  0.659833660114327,  0.495517471319609 ]
    mass: 15.999400
    reduced_to: 82
  - symbol: O  # 95
    coordinates: [  0.495517456250666,  0.659833660114327,  0.495517471319609 ]
    mass: 15.999400
    reduced_to: 82
  - symbol: O  # 96
    coordinates: [  0.828850789583999,  0.659833660114327,  0.495517471319609 ]
    mass: 15.999400
    reduced_to: 82
  - symbol: O  # 97
    coordinates: [  0.162184122917332,  0.993166993447660,  0.495517471319609 ]
    mass: 15.999400
    reduced_to: 82
  - symbol: O  # 98
    coordinates: [  0.495517456250666,  0.993166993447660,  0.495517471319609 ]
    mass: 15.999400
    reduced_to: 82
  - symbol: O  # 99
    coordinates: [  0.828850789583999,  0.993166993447660,  0.495517471319609 ]
    mass: 15.999400
    reduced_to: 82
  - symbol: O  # 100
    coordinates: [  0.162184122917332,  0.326500326780993,  0.828850804652942 ]
    mass: 15.999400
    reduced_to: 82
  - symbol: O  # 101
    coordinates: [  0.495517456250666,  0.326500326780993,  0.828850804652942 ]
    mass: 15.999400
    reduced_to: 82
  - symbol: O  # 102
    coordinates: [  0.828850789583999,  0.326500326780993,  0.828850804652942 ]
    mass: 15.999400
    reduced_to: 82
  - symbol: O  # 103
    coordinates: [  0.162184122917332,  0.659833660114327,  0.828850804652942 ]
    mass: 15.999400
    reduced_to: 82
  - symbol: O  # 104
    coordinates: [  0.495517456250666,  0.659833660114327,  0.828850804652942 ]
    mass: 15.999400
    reduced_to: 82
  - symbol: O  # 105
    coordinates: [  0.828850789583999,  0.659833660114327,  0.828850804652942 ]
    mass: 15.999400
    reduced_to: 82
  - symbol: O  # 106
    coordinates: [  0.162184122917332,  0.993166993447660,  0.828850804652942 ]
    mass: 15.999400
    reduced_to: 82
  - symbol: O  # 107
    coordinates: [  0.495517456250666,  0.993166993447660,  0.828850804652942 ]
    mass: 15.999400
    reduced_to: 82
  - symbol: O  # 108
    coordinates: [  0.828850789583999,  0.993166993447660,  0.828850804652942 ]
    mass: 15.999400
    reduced_to: 82
  - symbol: O  # 109
    coordinates: [  0.326500326780993,  0.162184122917332,  0.162184137986275 ]
    mass: 15.999400
    reduced_to: 109
  - symbol: O  # 110
    coordinates: [  0.659833660114327,  0.162184122917332,  0.162184137986275 ]
    mass: 15.999400
    reduced_to: 109
  - symbol: O  # 111
    coordinates: [  0.993166993447660,  0.162184122917332,  0.162184137986275 ]
    mass: 15.999400
    reduced_to: 109
  - symbol: O  # 112
    coordinates: [  0.326500326780993,  0.495517456250666,  0.162184137986275 ]
    mass: 15.999400
    reduced_to: 109
  - symbol: O  # 113
    coordinates: [  0.659833660114327,  0.495517456250666,  0.162184137986275 ]
    mass: 15.999400
    reduced_to: 109
  - symbol: O  # 114
    coordinates: [  0.993166993447660,  0.495517456250666,  0.162184137986275 ]
    mass: 15.999400
    reduced_to: 109
  - symbol: O  # 115
    coordinates: [  0.326500326780993,  0.828850789583999,  0.162184137986275 ]
    mass: 15.999400
    reduced_to: 109
  - symbol: O  # 116
    coordinates: [  0.659833660114327,  0.828850789583999,  0.162184137986275 ]
    mass: 15.999400
    reduced_to: 109
  - symbol: O  # 117
    coordinates: [  0.993166993447660,  0.828850789583999,  0.162184137986275 ]
    mass: 15.999400
    reduced_to: 109
  - symbol: O  # 118
    coordinates: [  0.326500326780993,  0.162184122917332,  0.495517471319609 ]
    mass: 15.999400
    reduced_to: 109
  - symbol: O  # 119
    coordinates: [  0.659833660114327,  0.162184122917332,  0.495517471319609 ]
    mass: 15.999400
    reduced_to: 109
  - symbol: O  # 120
    coordinates: [  0.993166993447660,  0.162184122917332,  0.495517471319609 ]
    mass: 15.999400
    reduced_to: 109
  - symbol: O  # 121
    coordinates: [  0.326500326780993,  0.495517456250666,  0.495517471319609 ]
    mass: 15.999400
    reduced_to: 109
  - symbol: O  # 122
    coordinates: [  0.659833660114327,  0.495517456250666,  0.495517471319609 ]
    mass: 15.999400
    reduced_to: 109
  - symbol: O  # 123
    coordinates: [  0.993166993447660,  0.495517456250666,  0.495517471319609 ]
    mass: 15.999400
    reduced_to: 109
  - symbol: O  # 124
    coordinates: [  0.326500326780993,  0.828850789583999,  0.495517471319609 ]
    mass: 15.999400
    reduced_to: 109
  - symbol: O  # 125
    coordinates: [  0.659833660114327,  0.828850789583999,  0.495517471319609 ]
    mass: 15.999400
    reduced_to: 109
  - symbol: O  # 126
    coordinates: [  0.993166993447660,  0.828850789583999,  0.495517471319609 ]
    mass: 15.999400
    reduced_to: 109
  - symbol: O  # 127
    coordinates: [  0.326500326780993,  0.162184122917332,  0.828850804652942 ]
    mass: 15.999400
    reduced_to: 109
  - symbol: O  # 128
    coordinates: [  0.659833660114327,  0.162184122917332,  0.828850804652942 ]
    mass: 15.999400
    reduced_to: 109
  - symbol: O  # 129
    coordinates: [  0.993166993447660,  0.162184122917332,  0.828850804652942 ]
    mass: 15.999400
    reduced_to: 109
  - symbol: O  # 130
    coordinates: [  0.326500326780993,  0.495517456250666,  0.828850804652942 ]
    mass: 15.999400
    reduced_to: 109
  - symbol: O  # 131
    coordinates: [  0.659833660114327,  0.495517456250666,  0.828850804652942 ]
    mass: 15.999400
    reduced_to: 109
  - symbol: O  # 132
    coordinates: [  0.993166993447660,  0.495517456250666,  0.828850804652942 ]
    mass: 15.999400
    reduced_to: 109
  - symbol: O  # 133
    coordinates: [  0.326500326780993,  0.828850789583999,  0.828850804652942 ]
    mass: 15.999400
    reduced_to: 109
  - symbol: O  # 134
    coordinates: [  0.659833660114327,  0.828850789583999,  0.828850804652942 ]
    mass: 15.999400
    reduced_to: 109
  - symbol: O  # 135
    coordinates: [  0.993166993447660,  0.828850789583999,  0.828850804652942 ]
    mass: 15.999400
    reduced_to: 109
