64
2

1
  0.0100000000000000   0.0000000000000000   0.0000000000000000
  -0.1268779800    0.0000000700   -0.0000002700
   0.0160533900   -0.0000000900    0.0000000600
  -0.0000805000   -0.0000000500    0.0000000200
   0.0006203800    0.0000000600    0.0000000100
  -0.0000804600   -0.0000000200   -0.0000000100
   0.0006203500   -0.0000001200   -0.0000000100
  -0.0012186400    0.0000000600    0.0000000100
   0.0012226000    0.0000001100    0.0000000200
  -0.0048951000   -0.0000282300   -0.0000283100
   0.0028955400    0.0000016200    0.0000015200
  -0.0048951500    0.0000282200   -0.0000282000
   0.0028955800   -0.0000015800    0.0000015800
  -0.0048950600   -0.0000282500    0.0000283300
   0.0028955200    0.0000016400   -0.0000015400
  -0.0048951300    0.0000282100    0.0000282200
   0.0028955700   -0.0000016300   -0.0000015900
   0.0068463400    0.0000000300    0.0165498500
   0.0067933600   -0.0000000400   -0.0163916000
  -0.0000551100   -0.0000000300   -0.0003528900
  -0.0000455200    0.0000000300    0.0003481500
   0.0068462900    0.0000000900   -0.0165498400
   0.0067933500    0.0000000300    0.0163916100
  -0.0000551300   -0.0000000600    0.0003529100
  -0.0000455500   -0.0000000100   -0.0003481200
   0.0068462300    0.0165498100   -0.0000000100
   0.0067934200   -0.0163916100   -0.0000000000
   0.0068463500   -0.0165498000    0.0000000300
   0.0067933000    0.0163916300    0.0000000600
  -0.0000552000   -0.0003529600    0.0000000300
  -0.0000454600    0.0003481100    0.0000000000
  -0.0000551300    0.0003529200   -0.0000000200
  -0.0000455400   -0.0003481300   -0.0000000600
   0.0188457500    0.0000002700   -0.0000001700
   0.0164376400    0.0000003300   -0.0000000500
   0.0004678200   -0.0000002800   -0.0000001500
   0.0004493000   -0.0000003200   -0.0000000900
   0.0004680000   -0.0000000900    0.0000001400
   0.0004491600   -0.0000001800    0.0000000500
   0.0000113000    0.0000002800    0.0000001700
   0.0000036100    0.0000002300    0.0000000300
  -0.0003723200   -0.0027767800   -0.0027768800
  -0.0003868600    0.0027599500    0.0027599200
  -0.0003718200    0.0027767600   -0.0027763100
  -0.0003873400   -0.0027599900    0.0027603900
  -0.0003721600   -0.0027768400    0.0027768500
  -0.0003870400    0.0027599300   -0.0027598600
  -0.0003717100    0.0027767400    0.0027764100
  -0.0003874200   -0.0027599600   -0.0027603300
   0.0136653100    0.0000002500   -0.0000660700
  -0.0061312200   -0.0000003900   -0.0000007400
   0.0013600600   -0.0000001900    0.0000077300
  -0.0015226100    0.0000002700    0.0000006400
   0.0136655000    0.0000003900    0.0000661700
  -0.0061312400   -0.0000001000    0.0000006200
   0.0013603600   -0.0000002900   -0.0000078200
  -0.0015226800    0.0000001300   -0.0000007300
   0.0136654000   -0.0000664000   -0.0000002500
  -0.0061311200   -0.0000008700   -0.0000002500
   0.0136653400    0.0000662900   -0.0000000600
  -0.0061311800    0.0000009800   -0.0000000600
   0.0013602800    0.0000076900    0.0000002000
  -0.0015226700    0.0000003700    0.0000003500
   0.0013602500   -0.0000078200    0.0000000700
  -0.0015226000   -0.0000004000    0.0000001600

33
  0.0100000000000000   0.0000000000000000   0.0000000000000000
   0.0164316300    0.0000000400    0.0000001400
   0.0188483700   -0.0000000300    0.0000001900
   0.0004526300   -0.0000000200    0.0000000400
   0.0004633200    0.0000000000    0.0000000300
   0.0004526400   -0.0000000000   -0.0000000300
   0.0004633000   -0.0000000600   -0.0000000200
   0.0000033800    0.0000000200   -0.0000000400
   0.0000128400    0.0000000700   -0.0000000200
  -0.0003889300    0.0027642000    0.0027641200
  -0.0003719600   -0.0027736600   -0.0027737700
  -0.0003889500   -0.0027642100    0.0027641800
  -0.0003719400    0.0027736900   -0.0027737000
  -0.0003888900    0.0027641800   -0.0027641300
  -0.0003719900   -0.0027736700    0.0027737300
  -0.0003889400   -0.0027642000   -0.0027641800
  -0.0003719500    0.0027736800    0.0027736700
   0.0136651700    0.0000000100   -0.0000309800
  -0.0061308500   -0.0000000100   -0.0000036300
   0.0013608900   -0.0000000100   -0.0000033700
  -0.0015231500    0.0000000100   -0.0000025200
   0.0136651400    0.0000000600    0.0000309700
  -0.0061308600    0.0000000000    0.0000036200
   0.0013608800   -0.0000000400    0.0000033600
  -0.0015231800   -0.0000000100    0.0000025200
   0.0136650900   -0.0000309700    0.0000000000
  -0.0061308300   -0.0000036000    0.0000000300
   0.0136651500    0.0000309700    0.0000000400
  -0.0061308700    0.0000036100    0.0000000500
   0.0013608600   -0.0000033700   -0.0000000000
  -0.0015231300   -0.0000025100   -0.0000000500
   0.0013609000    0.0000033400   -0.0000000500
  -0.0015232000    0.0000025100   -0.0000000700
  -0.1286045000    0.0000001400    0.0000010000
   0.0067942600    0.0000001200   -0.0000011800
  -0.0032040400   -0.0000000900   -0.0000000900
   0.0046809800   -0.0000001300   -0.0000000800
  -0.0032043800   -0.0000000100    0.0000001000
   0.0046808700   -0.0000001100    0.0000000800
  -0.0010565700    0.0000001400    0.0000000900
   0.0010923600    0.0000000900    0.0000000600
  -0.0046005500   -0.0000197000   -0.0000196800
   0.0033088800    0.0000026200    0.0000026700
  -0.0046003900    0.0000197000   -0.0000194400
   0.0033087700   -0.0000025900    0.0000028000
  -0.0046004200   -0.0000197600    0.0000196600
   0.0033087800    0.0000025500   -0.0000026100
  -0.0046003100    0.0000196900    0.0000194900
   0.0033086900   -0.0000025500   -0.0000027800
   0.0076542900    0.0000000700   -0.0105400800
   0.0077085300   -0.0000001900    0.0106541000
  -0.0001233900    0.0000000100   -0.0012476400
  -0.0001359400    0.0000001100    0.0012551900
   0.0076543700    0.0000001200    0.0105401300
   0.0077086600   -0.0000000200   -0.0106542800
  -0.0001231300   -0.0000000600    0.0012475100
  -0.0001359700    0.0000000300   -0.0012553000
   0.0076543500   -0.0105403500   -0.0000001600
   0.0077086600    0.0106540200   -0.0000001600
   0.0076542300    0.0105401600   -0.0000001000
   0.0077086900   -0.0106539200   -0.0000000500
  -0.0001231500   -0.0012476100    0.0000001500
  -0.0001360500    0.0012549500    0.0000002400
  -0.0001232100    0.0012475400    0.0000000800
  -0.0001359300   -0.0012550000    0.0000001200