135
8

1
  0.0035400546156128  -0.0035310074084428   0.0000000006885131
  -0.0290447235    0.0287678157   -0.0001396109
   0.0042060676   -0.0040723702    0.0000905028
   0.0040502587   -0.0041777855   -0.0000938453
  -0.0014411033    0.0013207757   -0.0000205688
   0.0009988736   -0.0001295836    0.0000683913
   0.0001444960   -0.0010143002   -0.0000910171
  -0.0013038064    0.0014580726   -0.0000210830
  -0.0000048851   -0.0011634242    0.0000601638
   0.0009981022   -0.0001306120   -0.0000714767
  -0.0013997085    0.0013621704   -0.0000789329
   0.0006124368   -0.0005170488    0.0006170647
   0.0005119066   -0.0006461182   -0.0006124368
  -0.0005021364    0.0004010921   -0.0000668487
   0.0002841069   -0.0001164710    0.0001213561
   0.0000887031   -0.0002910489   -0.0001393538
  -0.0004519999    0.0005342752   -0.0000894744
   0.0000362526   -0.0003954357    0.0001586371
   0.0003252445   -0.0001064437   -0.0001401251
  -0.0013997085    0.0013619133    0.0001149283
   0.0006178361   -0.0005394174   -0.0008237814
   0.0005137064   -0.0006162934    0.0006160363
  -0.0005592149    0.0004268031    0.0000627349
   0.0003249874   -0.0001059294   -0.0002511968
   0.0001149283   -0.0003170170    0.0001581228
  -0.0004023776    0.0005011080    0.0000737907
   0.0000100273   -0.0003689533   -0.0002501683
   0.0002843640   -0.0001169852    0.0001210990
   0.0061048273    0.0045917331    0.0075405312
  -0.0037977764   -0.0063467681   -0.0071597509
   0.0018121135   -0.0019923478   -0.0001329260
  -0.0039271029   -0.0051581471    0.0076287201
   0.0051630322    0.0036108572   -0.0072741649
   0.0016467915   -0.0017396084   -0.0001177565
  -0.0002781934    0.0002704800    0.0000758475
  -0.0002244573    0.0003216450   -0.0000413948
   0.0005018793   -0.0006263207   -0.0000311103
   0.0059880992    0.0047822518   -0.0064472982
  -0.0043413076   -0.0059179081    0.0062189842
   0.0016138814   -0.0017725185   -0.0000709624
  -0.0033329210   -0.0045385112   -0.0055553825
   0.0042042678    0.0033835717    0.0053484087
   0.0013811966   -0.0014871260   -0.0000797042
  -0.0001468100    0.0003506985   -0.0001779203
  -0.0003162457    0.0001951467    0.0002383413
   0.0004633128   -0.0005784982   -0.0000290535
  -0.0002193151    0.0003293583   -0.0000077133
  -0.0003008191    0.0002452832    0.0000668487
   0.0005443025   -0.0005836404   -0.0000915313
  -0.0003725528    0.0001244414    0.0001426962
  -0.0000863891    0.0004257747   -0.0000881888
   0.0005026507   -0.0005391603   -0.0000848464
  -0.0000915313    0.0001681501    0.0000516792
  -0.0001889761    0.0001810057   -0.0000077133
   0.0003100750   -0.0003584118   -0.0000372810
  -0.0008489783   -0.0011806506   -0.0010387257
   0.0014380180   -0.0003663822    0.0008906301
  -0.0006396905    0.0006900841    0.0000627349
   0.0013847961   -0.0004340022   -0.0013403161
   0.0019810350   -0.0014238769    0.0012233309
  -0.0006962547    0.0006376336    0.0000609351
   0.0001696928   -0.0001077292    0.0001259841
   0.0001866621   -0.0002216291   -0.0001524664
  -0.0003185597    0.0003468418    0.0000190262
  -0.0003278156   -0.0004293742    0.0015341772
   0.0007222229    0.0000825324   -0.0016071966
  -0.0003185597    0.0003311581    0.0000658202
   0.0003152172    0.0001640364    0.0009657063
   0.0000521934   -0.0005173059   -0.0010443821
  -0.0003090466    0.0003057042    0.0000830466
   0.0000581069   -0.0000439659    0.0002136587
   0.0001285552   -0.0001203276   -0.0002619954
  -0.0001470671    0.0001684073    0.0000295677
  -0.0001905187   -0.0003542980   -0.0012235880
   0.0006088372   -0.0000023140    0.0011973627
  -0.0003175312    0.0003381001    0.0000830466
   0.0003033902    0.0001131285   -0.0010618656
   0.0000789329   -0.0005011080    0.0010590374
  -0.0003252445    0.0003149601    0.0000583640
   0.0000717338   -0.0000231399   -0.0002406553
   0.0001118430   -0.0001378111    0.0002262571
  -0.0001473242    0.0001671217    0.0000257110
  -0.0005715562   -0.0009022001   -0.0014333900
   0.0015341772   -0.0002694516    0.0007530761
  -0.0006214356    0.0007085960    0.0000359954
   0.0011325709    0.0010351261   -0.0005401888
  -0.0008134970   -0.0014565299    0.0005718133
  -0.0002789647    0.0003712673    0.0000084846
  -0.0007831580   -0.0009482228   -0.0003830944
   0.0011526255    0.0005430170    0.0004244891
  -0.0002697087    0.0003864368    0.0000141411
  -0.0000341957   -0.0018563365    0.0006733719
   0.0025695605   -0.0008335516    0.0003872081
  -0.0006250352    0.0007093674   -0.0000411376
   0.0007584754    0.0006085801    0.0003355290
  -0.0004535426   -0.0010238133   -0.0003273014
  -0.0002493970    0.0003658680   -0.0000028282
  -0.0006540886   -0.0008461500    0.0002964482
   0.0010371830    0.0004599703   -0.0003023617
  -0.0002794789    0.0003612400   -0.0000074562
   0.0002277997   -0.0000491081    0.0000424232
   0.0000966735   -0.0003116177   -0.0000254539
  -0.0003198452    0.0003460705    0.0000200546
   0.0002018316    0.0001005301    0.0000087418
  -0.0000604209   -0.0003095608    0.0000056564
  -0.0001372969    0.0001786917    0.0000143982
  -0.0001226416   -0.0002175153    0.0000339386
   0.0002846211    0.0000357383   -0.0000200546
  -0.0001393538    0.0001753492    0.0000136268
   0.0034977287   -0.0039013919   -0.0002915631
  -0.0011407985    0.0019195856    0.0005517587
  -0.0016272512    0.0011384845   -0.0003424709
   0.0036257696   -0.0033416627   -0.0002810216
  -0.0015526892    0.0008731466    0.0005597291
  -0.0009029714    0.0015082091   -0.0003771808
   0.0006332627   -0.0006517746   -0.0000097702
  -0.0002861638    0.0002715085    0.0000748191
  -0.0003275585    0.0004113765   -0.0000372810
   0.0032902407   -0.0036779630    0.0001951467
  -0.0008204390    0.0016074537   -0.0004800250
  -0.0014722136    0.0009374242    0.0004309169
   0.0030490712   -0.0027801338    0.0001843481
  -0.0012133036    0.0004738543   -0.0005201342
  -0.0006450898    0.0013063775    0.0004679408
   0.0005389032   -0.0005579294    0.0000015427
  -0.0002316564    0.0002411695   -0.0000964164
  -0.0002866780    0.0003465847    0.0001146712
   0.0006366051   -0.0006484322   -0.0000146553
  -0.0002262571    0.0003314152   -0.0000100273
  -0.0003959499    0.0003427280    0.0000599067
   0.0005504732   -0.0005466165   -0.0000146553
  -0.0003046757    0.0001678930    0.0000071991
  -0.0002357702    0.0003974925    0.0000424232
   0.0003190739   -0.0003273014   -0.0000064278
  -0.0001195563    0.0001298407    0.0000074562
  -0.0001846052    0.0002203435    0.0000254539

1
 -0.0035400546156128   0.0035310074084428  -0.0000000006885131
   0.0289403367   -0.0287518749    0.0000843322
  -0.0042415488    0.0040471734   -0.0001259841
  -0.0041363907    0.0042034965    0.0000583640
   0.0013729691   -0.0013269463   -0.0000146553
  -0.0010590374    0.0001306120   -0.0001043868
  -0.0002038885    0.0010145573    0.0000550216
   0.0012490419   -0.0014513877   -0.0000143982
  -0.0000570785    0.0011621386   -0.0000961593
  -0.0010600658    0.0001293265    0.0000357383
   0.0013390305   -0.0013611420    0.0000336815
  -0.0006736290    0.0005170488   -0.0006517746
  -0.0005720704    0.0006453469    0.0005777269
   0.0004396586   -0.0004018634    0.0000293106
  -0.0003450420    0.0001167281   -0.0001570944
  -0.0001488669    0.0002902775    0.0001033583
   0.0003918361   -0.0005332468    0.0000521934
  -0.0000974448    0.0003951785   -0.0001943754
  -0.0003856655    0.0001056723    0.0001043868
   0.0013390305   -0.0013613991   -0.0001419249
  -0.0006785141    0.0005389032    0.0007862433
  -0.0005743844    0.0006160363   -0.0006535744
   0.0004972513   -0.0004273173   -0.0000974448
  -0.0003856655    0.0001061866    0.0002149442
  -0.0001750921    0.0003165028   -0.0001943754
   0.0003419567   -0.0005003367   -0.0001090148
  -0.0000712196    0.0003689533    0.0002139158
  -0.0003447849    0.0001162139   -0.0001573515
  -0.0061027704   -0.0046166728   -0.0075616143
   0.0037954624    0.0063290274    0.0071404676
  -0.0017969440    0.0019908051    0.0001375540
   0.0039679834    0.0051650891   -0.0076467178
  -0.0051347500   -0.0035915739    0.0072589954
  -0.0016280225    0.0017414081    0.0001218703
   0.0002951626   -0.0002715085   -0.0000686485
   0.0002409124   -0.0003211308    0.0000485938
  -0.0004846529    0.0006260636    0.0000385665
  -0.0059801287   -0.0048087342    0.0064760945
   0.0043387365    0.0059063381   -0.0061899308
  -0.0015987119    0.0017707187    0.0000804755
   0.0033743157    0.0045385112    0.0055795509
  -0.0041818992   -0.0033642884   -0.0053239832
  -0.0013626847    0.0014886687    0.0000889602
   0.0001637793   -0.0003519840    0.0001851194
   0.0003327007   -0.0001946325   -0.0002308851
  -0.0004460864    0.0005779840    0.0000362526
   0.0002370557   -0.0003298725    0.0000138840
   0.0003172741   -0.0002445119   -0.0000599067
  -0.0005268190    0.0005836404    0.0000984732
   0.0003902935   -0.0001249556   -0.0001365256
   0.0001028441   -0.0004250033    0.0000951308
  -0.0004851672    0.0005389032    0.0000915313
   0.0001090148   -0.0001689215   -0.0000449943
   0.0002051740   -0.0001802343    0.0000149124
  -0.0002928486    0.0003581547    0.0000442230
   0.0008224959    0.0011870783    0.0010366688
  -0.0014089645    0.0003015904   -0.0008950010
   0.0006648873   -0.0006877701   -0.0000640205
  -0.0013665413    0.0005093355    0.0013382592
  -0.0018645640    0.0014223342   -0.0012277017
   0.0007170807   -0.0006396905   -0.0000622207
  -0.0001462958    0.0001079863   -0.0001282980
  -0.0001630079    0.0002213720    0.0001501524
   0.0003419567   -0.0003468418   -0.0000210830
   0.0003506985    0.0004309169   -0.0015352057
  -0.0006975403   -0.0000833037    0.0016043683
   0.0003422138   -0.0003309010   -0.0000691627
  -0.0002938771   -0.0001630079   -0.0009654492
  -0.0000277679    0.0005155062    0.0010418110
   0.0003324436   -0.0003057042   -0.0000858748
  -0.0000347099    0.0000442230   -0.0002154584
  -0.0001046439    0.0001200705    0.0002596814
   0.0001704641   -0.0001681501   -0.0000316246
   0.0002136587    0.0003555836    0.0012225595
  -0.0005841546    0.0000020569   -0.0011978769
   0.0003411854   -0.0003378430   -0.0000838180
  -0.0002812787   -0.0001128714    0.0010603229
  -0.0000547645    0.0004998224   -0.0010595516
   0.0003483845   -0.0003149601   -0.0000588783
  -0.0000483367    0.0000236541    0.0002391126
  -0.0000879317    0.0001378111   -0.0002280568
   0.0001704641   -0.0001671217   -0.0000272537
   0.0005533014    0.0009173696    0.0014179634
  -0.0014907256    0.0002200864   -0.0007800727
   0.0006319771   -0.0007206802   -0.0000179977
  -0.0011230578   -0.0010461819    0.0005558725
   0.0008237814    0.0014423889   -0.0005561296
   0.0002879635   -0.0003848941    0.0000066849
   0.0007931853    0.0009371671    0.0003987781
  -0.0011405413   -0.0005556154   -0.0004088054
   0.0002805074   -0.0003982639    0.0000010284
   0.0000041138    0.0018838473   -0.0006085801
  -0.0025135104    0.0007721023   -0.0003072468
   0.0006353196   -0.0007211944    0.0000529647
  -0.0007481910   -0.0006180932   -0.0003211308
   0.0004645983    0.0010094151    0.0003419567
   0.0002586530   -0.0003792377    0.0000177406
   0.0006636017    0.0008350943   -0.0002820500
  -0.0010250988   -0.0004728259    0.0003170170
   0.0002905347   -0.0003728100    0.0000226257
  -0.0002180295    0.0000365097   -0.0000272537
  -0.0000863891    0.0002985051    0.0000406234
   0.0003296154   -0.0003586689   -0.0000046280
  -0.0001918043   -0.0001128714    0.0000066849
   0.0000707053    0.0002964482    0.0000097702
   0.0001470671   -0.0001912901    0.0000007713
   0.0001324118    0.0002054311   -0.0000187691
  -0.0002740796   -0.0000485938    0.0000352241
   0.0001496382   -0.0001876905    0.0000015427
  -0.0034933578    0.0039152758    0.0003039044
   0.0011536540   -0.0019072443   -0.0005342752
   0.0016377927   -0.0011238292    0.0003599544
  -0.0036152281    0.0033627458    0.0002936200
   0.0015624594   -0.0008636335   -0.0005422456
   0.0009106847   -0.0014963820    0.0003946643
  -0.0006227212    0.0006643730    0.0000249397
   0.0002964482   -0.0002594243   -0.0000591354
   0.0003370716   -0.0003980068    0.0000529647
  -0.0032863840    0.0036926183   -0.0001730352
   0.0008330374   -0.0015948553    0.0004931376
   0.0014827552   -0.0009227689   -0.0004175471
  -0.0030395581    0.0028014740   -0.0001630079
   0.0012230738   -0.0004645983    0.0005332468
   0.0006528031   -0.0012945504   -0.0004545710
  -0.0005283617    0.0005705278    0.0000141411
   0.0002421979   -0.0002288282    0.0001121001
   0.0002961911   -0.0003329579   -0.0000989875
  -0.0006265778    0.0006607735    0.0000303390
   0.0002367986   -0.0003193310    0.0000257110
   0.0004054630   -0.0003296154   -0.0000442230
  -0.0005399317    0.0005589578    0.0000305961
   0.0003149601   -0.0001558088    0.0000084846
   0.0002450261   -0.0003841228   -0.0000264824
  -0.0003090466    0.0003401569    0.0000223686
   0.0001298407   -0.0001174994    0.0000082275
   0.0001943754   -0.0002072309   -0.0000097702

28
  0.0035400546156128  -0.0035310074084428   0.0000000006885131
   0.0060775736    0.0046171870    0.0075451592
   0.0018553080   -0.0019049303   -0.0000347099
  -0.0032974398   -0.0058217488   -0.0064303289
  -0.0004013492    0.0001879476    0.0000534789
   0.0004617701   -0.0006260636    0.0000282821
  -0.0003555836    0.0002257429   -0.0001990034
  -0.0044984020   -0.0056787955    0.0076372047
   0.0016974423   -0.0016455060    0.0001154425
   0.0051141812    0.0035859175   -0.0055983199
  -0.0002599385    0.0003296154   -0.0001470671
   0.0005617860   -0.0005257906   -0.0001136428
  -0.0004342593    0.0001468100   -0.0000874175
  -0.0001884619    0.0001113288   -0.0000506507
   0.0002707372   -0.0003581547   -0.0000588783
  -0.0002403981    0.0001660933   -0.0000485938
  -0.0003152172    0.0002226575   -0.0001318976
   0.0004764254   -0.0005250193   -0.0001067008
  -0.0001234129    0.0004244891   -0.0000979590
   0.0059623881    0.0048087342   -0.0072134869
   0.0017527210   -0.0015899702    0.0000367668
  -0.0031742839   -0.0047236307    0.0061683335
  -0.0003650966    0.0001725210   -0.0000611923
   0.0004237178   -0.0005779840   -0.0000313675
  -0.0003452991    0.0002020887    0.0002170011
  -0.0045714213   -0.0057294462   -0.0072628521
   0.0013305459   -0.0014958678   -0.0001156996
   0.0041541313    0.0033599176    0.0053023860
  -0.0683039255    0.0694352109    0.0009196836
   0.0221351410   -0.0217769863    0.0002105733
   0.0206572709   -0.0230962193   -0.0017619770
  -0.0029215445    0.0004915949    0.0001653219
   0.0028842635    0.0014745276    0.0000089989
  -0.0016835583   -0.0037206433    0.0000244255
  -0.0014948394    0.0019272989    0.0001604368
  -0.0017234104   -0.0037502110    0.0002578816
   0.0028837493    0.0014614150   -0.0001506666
  -0.0015951124    0.0018216266   -0.0017180111
   0.0007222229   -0.0006929123    0.0030783818
   0.0010284412   -0.0010017018   -0.0038258014
  -0.0010436108    0.0008448645   -0.0001408965
   0.0006749146   -0.0002108305    0.0003242161
   0.0001205847   -0.0008932012   -0.0005481592
  -0.0007762160    0.0011397700    0.0000190262
   0.0000282821   -0.0009086278    0.0005160204
   0.0008340659   -0.0001031012   -0.0005499590
  -0.0015974264    0.0018244548    0.0003062184
   0.0011881068   -0.0008312376   -0.0038754237
   0.0006157792   -0.0008124686    0.0030691258
  -0.0009433377    0.0009721341    0.0002563390
   0.0008335516   -0.0001013015   -0.0006270921
   0.0000838180   -0.0008551489    0.0005147348
  -0.0009281682    0.0009600499    0.0000218544
   0.0000653060   -0.0009464231   -0.0006250352
   0.0006754288   -0.0002123731    0.0003231877
   0.0080722354   -0.0084568724   -0.0005702707
  -0.0027431099    0.0028881201   -0.0051445202
  -0.0026371805    0.0021669257    0.0065352299
   0.0009387097   -0.0005486734    0.0002033743
  -0.0006682297   -0.0000462799   -0.0004108623
   0.0000259681    0.0008119544    0.0006111512
   0.0006764572   -0.0007088531   -0.0000701911
   0.0000786758    0.0006453469   -0.0007278793
  -0.0006301774    0.0000997588    0.0006101228
   0.0004656268   -0.0005260477    0.0002740796
  -0.0000293106    0.0001624937    0.0001542662
  -0.0004466006    0.0002658521    0.0004705119
   0.0003103321   -0.0002092878    0.0000151695
  -0.0001401251    0.0000285392    0.0000758475
  -0.0000835609    0.0002416837    0.0001090148
   0.0002434835   -0.0002648236    0.0000347099
   0.0000156837    0.0001627508    0.0000079704
  -0.0002146871    0.0001015586    0.0001704641
   0.0059798716   -0.0061521355    0.0014647574
  -0.0024854854    0.0024926845    0.0054193712
  -0.0020419701    0.0018056857   -0.0049879401
   0.0008340659   -0.0005748987   -0.0004049487
  -0.0007600181   -0.0000586212    0.0005296472
   0.0000154266    0.0007366210   -0.0006905983
   0.0006895699   -0.0006222070   -0.0001051581
   0.0000527076    0.0007186233    0.0005862115
  -0.0005399317    0.0001208418   -0.0004908236
   0.0078716893   -0.0086576755   -0.0002861638
  -0.0064521833   -0.0008299521    0.0001200705
   0.0022088347    0.0070257964   -0.0003455563
   0.0006898270   -0.0003010762   -0.0000449943
   0.0000131126    0.0002054311    0.0000933310
  -0.0000249397    0.0006890556   -0.0001290694
   0.0071078146   -0.0050211073   -0.0001372969
   0.0013346596    0.0063228568   -0.0000051422
  -0.0054494531   -0.0016100248   -0.0001514380
   0.0008888303   -0.0005982957    0.0002730512
  -0.0006031808    0.0000195404   -0.0005044504
   0.0000393379    0.0008260954    0.0005910966
   0.0002707372   -0.0002486257    0.0000704482
  -0.0000313675    0.0001380682   -0.0000797042
  -0.0000858748    0.0002398839    0.0001110717
   0.0004196040   -0.0009898747    0.0001822912
   0.0000210830    0.0007250511   -0.0005802980
  -0.0008474356   -0.0001282980    0.0005335039
   0.0006438042   -0.0007412490   -0.0000246826
  -0.0007965277   -0.0002316564    0.0005137064
   0.0000642776    0.0007962706   -0.0003766666
   0.0002789647   -0.0002290853   -0.0000164551
  -0.0000678771    0.0000794471    0.0001254698
  -0.0000383094    0.0002787076   -0.0000807326
   0.0005823549   -0.0007291648    0.0000460227
   0.0000820182    0.0007484481    0.0005437883
  -0.0006782570   -0.0000174835   -0.0002954197
   0.0235908996   -0.0246249973   -0.0007731307
  -0.0086779873    0.0088890748    0.0001645506
  -0.0123351243    0.0124173996    0.0000802184
   0.0008957723   -0.0015976835   -0.0001244414
  -0.0017228962    0.0017133831   -0.0000035995
   0.0013488007    0.0003172741    0.0000025711
   0.0013973945   -0.0005941819   -0.0001069579
  -0.0016730168    0.0019882340    0.0000179977
   0.0004537997   -0.0012580408   -0.0000064278
   0.0011593104   -0.0013336312   -0.0004985369
  -0.0017228962    0.0017133831   -0.0000035995
   0.0005214197   -0.0005119066    0.0011767939
   0.0000527076   -0.0008970579   -0.0005964959
  -0.0005813264    0.0006363480    0.0000398521
   0.0005332468    0.0002221433    0.0005322183
   0.0008800886   -0.0001108145   -0.0005823549
  -0.0006219498    0.0007006256    0.0000143982
  -0.0000650489   -0.0004820818    0.0004486575
   0.0009232831   -0.0010695789    0.0005661569
  -0.0018193126    0.0018414241    0.0002257429
   0.0008510351   -0.0008600340   -0.0005705278
   0.0000866462   -0.0009065710    0.0005443025
  -0.0006517746    0.0006708008    0.0000568214
   0.0005247621    0.0001092719   -0.0003884937
   0.0008577200   -0.0001056723    0.0005293901
  -0.0006353196    0.0007471626    0.0000799613
   0.0000200546   -0.0004545710   -0.0003069897

28
 -0.0035400546156128   0.0035310074084428  -0.0000000006885131
  -0.0061302812   -0.0045914760   -0.0075572434
  -0.0019193285    0.0019123865    0.0000020569
   0.0032735285    0.0058292050    0.0064259580
   0.0003375858   -0.0001882047   -0.0000917884
  -0.0005245050    0.0006265778   -0.0000640205
   0.0002964482   -0.0002301137    0.0001627508
   0.0044189549    0.0056692824   -0.0076420898
  -0.0017640339    0.0016483342   -0.0001483527
  -0.0051836010   -0.0036165136    0.0055980628
   0.0001961752   -0.0003298725    0.0001090148
  -0.0006237496    0.0005270761    0.0000768760
   0.0003761524   -0.0001498953    0.0000493652
   0.0001264983   -0.0001110717    0.0000141411
  -0.0003324436    0.0003584118    0.0000223686
   0.0001807485   -0.0001681501    0.0000120842
   0.0002555677   -0.0002195722    0.0000935882
  -0.0005383890    0.0005263048    0.0000699340
   0.0000655631   -0.0004262889    0.0000601638
  -0.0060058398   -0.0047822518    0.0071574369
  -0.0018159701    0.0015963979   -0.0000748191
   0.0031496013    0.0047380288   -0.0062320969
   0.0003015904   -0.0001732924    0.0000282821
  -0.0004859385    0.0005784982   -0.0000043709
   0.0002856496   -0.0002056882   -0.0002522252
   0.0044922314    0.0057101629    0.0072003743
  -0.0013955948    0.0014979247    0.0000781615
  -0.0042320357   -0.0033879426   -0.0053700060
   0.0671888381   -0.0681141781   -0.0007772445
  -0.0221269135    0.0217780148   -0.0002087736
  -0.0208007385    0.0232707972    0.0017792034
   0.0029050894   -0.0005471307   -0.0001591513
  -0.0028822066   -0.0014655288   -0.0000007713
   0.0017159542    0.0037306706   -0.0000161979
   0.0015274924   -0.0019229280   -0.0001537520
   0.0017298382    0.0037548390   -0.0002486257
  -0.0028827208   -0.0014786414    0.0001604368
   0.0016221090   -0.0018331965    0.0016619611
  -0.0007163093    0.0007057678   -0.0030755536
  -0.0010078724    0.0009999020    0.0038507411
   0.0010569805   -0.0008500067    0.0001419249
  -0.0006610306    0.0002123731   -0.0003183026
  -0.0001025870    0.0008926870    0.0005558725
   0.0007972991   -0.0011374560   -0.0000149124
  -0.0000131126    0.0009109418   -0.0005093355
  -0.0008183821    0.0001013015    0.0005592149
   0.0016197950   -0.0018303683   -0.0002848782
  -0.0011773081    0.0008404936    0.0038782519
  -0.0005959817    0.0008137541   -0.0030855809
   0.0009592786   -0.0009752194   -0.0002447690
  -0.0008188963    0.0001031012    0.0006345483
  -0.0000650489    0.0008564344   -0.0005101069
   0.0009459088   -0.0009618497   -0.0000156837
  -0.0000501365    0.0009471944    0.0006312058
  -0.0006607735    0.0002105733   -0.0003190739
  -0.0080146426    0.0084154776    0.0004733401
   0.0027647072   -0.0028883772    0.0051530049
   0.0026772897   -0.0021828665   -0.0065678829
  -0.0009135129    0.0005551012   -0.0001943754
   0.0006941978    0.0000442230    0.0004103481
  -0.0000043709   -0.0008124686   -0.0006152650
  -0.0006548600    0.0007103958    0.0000725051
  -0.0000529647   -0.0006468895    0.0007253082
   0.0006551171   -0.0000979590   -0.0006165505
  -0.0004442866    0.0005263048   -0.0002640523
   0.0000555358   -0.0001660933   -0.0001532377
   0.0004699977   -0.0002658521   -0.0004707690
  -0.0002866780    0.0002108305   -0.0000151695
   0.0001645506   -0.0000290535   -0.0000771331
   0.0001067008   -0.0002416837   -0.0001100432
  -0.0002211149    0.0002650807   -0.0000341957
   0.0000084846   -0.0001635222   -0.0000089989
   0.0002385984   -0.0001010444   -0.0001717497
  -0.0059325633    0.0061256532   -0.0013994514
   0.0025063113   -0.0024916560   -0.0054201425
   0.0020787369   -0.0018190555    0.0050185362
  -0.0008098975    0.0005800409    0.0003926074
   0.0007839293    0.0000570785   -0.0005335039
   0.0000061706   -0.0007384208    0.0006905983
  -0.0006669441    0.0006247781    0.0001002730
  -0.0000272537   -0.0007178520   -0.0005885255
   0.0005658998   -0.0001192992    0.0004913378
  -0.0078907155    0.0085401761    0.0002964482
   0.0064688955    0.0008255812   -0.0001064437
  -0.0022044638   -0.0070767042    0.0003612400
  -0.0006726006    0.0002979909    0.0000588783
   0.0000025711   -0.0002190580   -0.0000786758
   0.0000362526   -0.0007003685    0.0001442389
  -0.0070247679    0.0050308775    0.0001504095
  -0.0013254037   -0.0063331412    0.0000190262
   0.0054957329    0.0016069395    0.0001666075
  -0.0008734037    0.0005957246   -0.0002524823
   0.0006162934   -0.0000331672    0.0005198771
  -0.0000316246   -0.0008394652   -0.0005777269
  -0.0002601956    0.0002378270   -0.0000537361
   0.0000426803   -0.0001509238    0.0000953879
   0.0000964164   -0.0002517110   -0.0000961593
  -0.0004190898    0.0009721341   -0.0001630079
  -0.0000113129   -0.0007399635    0.0005946962
   0.0008590056    0.0001169852   -0.0005209055
  -0.0006324914    0.0007332786    0.0000395950
   0.0008078406    0.0002167440   -0.0004980227
  -0.0000573356   -0.0008119544    0.0003938930
  -0.0002676518    0.0002188009    0.0000308532
   0.0000791900   -0.0000923026   -0.0001103003
   0.0000488510   -0.0002907918    0.0000966735
  -0.0005761842    0.0007163093   -0.0000295677
  -0.0000714767   -0.0007618179   -0.0005268190
   0.0006905983    0.0000064278    0.0003131604
  -0.0222169021    0.0231628109    0.0007078247
   0.0087137256   -0.0089063012   -0.0001519522
   0.0120690152   -0.0121615749   -0.0000874175
  -0.0008644049    0.0016084821    0.0001393538
   0.0017378086   -0.0017095265    0.0000185119
  -0.0013495720   -0.0002943913    0.0000118271
  -0.0013837677    0.0006013810    0.0001216132
   0.0016915287   -0.0019789781   -0.0000030853
  -0.0004473719    0.0012796380    0.0000210830
  -0.0011379702    0.0013341454    0.0005278475
   0.0017390942   -0.0017082409    0.0000167122
  -0.0005229624    0.0005342752   -0.0011616244
  -0.0000408805    0.0009075994    0.0006116654
   0.0005926393   -0.0006255494   -0.0000244255
  -0.0005263048   -0.0002080022   -0.0005178202
  -0.0008677473    0.0001228987    0.0005972673
   0.0006340340   -0.0006893127    0.0000007713
   0.0000745620    0.0004982798   -0.0004347735
  -0.0009093992    0.0010770351   -0.0005520158
   0.0018352534   -0.0018352534   -0.0002067167
  -0.0008479498    0.0008780317    0.0005898111
  -0.0000753333    0.0009173696   -0.0005275904
   0.0006630875   -0.0006602593   -0.0000406234
  -0.0005178202   -0.0000956450    0.0004062343
  -0.0008458929    0.0001185279   -0.0005121637
   0.0006474038   -0.0007355926   -0.0000637634
  -0.0000097702    0.0004705119    0.0003252445

55
  0.0035400546156128  -0.0035310074084428   0.0000000006885131
  -0.0008422934   -0.0011842501   -0.0002977337
  -0.0006746575    0.0006962547   -0.0000354812
   0.0013009782   -0.0003964641    0.0001753492
   0.0001205847   -0.0001162139   -0.0000334243
  -0.0003604687    0.0003468418   -0.0000300819
   0.0001321547   -0.0002324277   -0.0000226257
   0.0014372466   -0.0004136905   -0.0002951626
  -0.0007250511    0.0006502320   -0.0000359954
   0.0018504229   -0.0014251625    0.0001617224
  -0.0002311422   -0.0003563549   -0.0003753811
  -0.0003455563    0.0003519840    0.0000331672
   0.0004702548   -0.0000956450    0.0003980068
   0.0000156837   -0.0000383094   -0.0000647918
  -0.0001892332    0.0001668646   -0.0000007713
   0.0000766189   -0.0001298407    0.0000869033
   0.0003578976    0.0002067167   -0.0004095767
  -0.0003743526    0.0003077610    0.0000161979
   0.0000352241   -0.0004990511    0.0004396586
  -0.0003671535   -0.0004316882    0.0005216768
  -0.0003594402    0.0003321865   -0.0000352241
   0.0005152491   -0.0000773902   -0.0005098497
   0.0000151695   -0.0000457656    0.0000478225
  -0.0001892332    0.0001681501   -0.0000179977
   0.0000794471   -0.0001259841   -0.0001231558
   0.0004376018    0.0003242161    0.0005255335
  -0.0003445278    0.0003118748   -0.0000182548
   0.0000074562   -0.0005152491   -0.0005489305
   0.0080485812   -0.0084342467   -0.0006515175
  -0.0024263500    0.0023983250    0.0005761842
  -0.0026204683    0.0030117902   -0.0004933947
   0.0004568850   -0.0009276540   -0.0001054152
  -0.0006335198    0.0000979590    0.0005314470
   0.0001311263    0.0007039680   -0.0005815835
   0.0008057837   -0.0006813423   -0.0001254698
  -0.0000329101    0.0007541045    0.0005419885
  -0.0006726006   -0.0000444801   -0.0005957246
   0.0059631595   -0.0061403085    0.0000210830
  -0.0018997881    0.0019694650   -0.0005684709
  -0.0023564160    0.0026168688    0.0011798792
   0.0005340181   -0.0007767303   -0.0000110557
  -0.0005445596    0.0001190421   -0.0003116177
   0.0000398521    0.0007096245    0.0004437724
   0.0007001114   -0.0007080818    0.0000010284
   0.0000223686    0.0007458770   -0.0003933788
  -0.0007623321   -0.0000570785    0.0005317041
   0.0004643412   -0.0005263048    0.0001249556
  -0.0003676677    0.0003450420    0.0002139158
  -0.0000519363    0.0001496382   -0.0000133697
   0.0001614653   -0.0003447849    0.0000064278
  -0.0002172582    0.0001007872    0.0000735335
   0.0000015427    0.0001537520    0.0000079704
   0.0003226734   -0.0001946325   -0.0000156837
  -0.0000758475    0.0002511968    0.0000498794
  -0.0001442389    0.0000293106    0.0000339386
  -0.0237017141    0.0231106175    0.0020720520
   0.0008145255   -0.0007384208    0.0000156837
   0.0007661887   -0.0007867576   -0.0002445119
  -0.0005813264    0.0005633287    0.0000902457
   0.0010420681   -0.0000660774   -0.0001861479
   0.0000647918   -0.0010263844    0.0001910330
  -0.0005329897    0.0006119225    0.0000730193
   0.0000583640   -0.0010374401   -0.0001720068
   0.0010374401   -0.0000663345    0.0001756063
  -0.0001334403    0.0000102844    0.0007620750
   0.0003604687   -0.0003872081    0.0005463594
   0.0004437724   -0.0003643253   -0.0011091739
  -0.0001156996    0.0001632650    0.0000125984
   0.0001295836   -0.0000398521    0.0000876746
   0.0000501365   -0.0001198134   -0.0002398839
  -0.0001416678    0.0001349829    0.0000041138
   0.0000298248   -0.0001257269    0.0001439818
   0.0001511809   -0.0000344528   -0.0002895062
  -0.0001334403    0.0000102844   -0.0011125163
   0.0003998065   -0.0004088054   -0.0007757018
   0.0003972354   -0.0003499271    0.0009317678
  -0.0000989875    0.0001779203    0.0000020569
   0.0001506666   -0.0000339386   -0.0001630079