8
2

1
  0.0100000000000000   0.0000000000000000   0.0000000000000000
  -0.0988347466    0.0000000000    0.0000000000
  -0.0200237511    0.0000000000    0.0000000000
   0.0135502277    0.0000000000    0.0000000000
   0.0135502277    0.0000000000    0.0000000000
   0.0230530248    0.0183687320    0.0183687320
   0.0230530248   -0.0183687320   -0.0183687320
   0.0228262535    0.0179280450   -0.0179280450
   0.0228262535   -0.0179280450    0.0179280450

5
  0.0100000000000000   0.0000000000000000   0.0000000000000000
   0.0228136551    0.0179285592    0.0179285592
   0.0228136551   -0.0179285592   -0.0179285592
   0.0230645948   -0.0183682178    0.0183682178
   0.0230645948    0.0183682178   -0.0183682178
  -0.1025024252    0.0000000000    0.0000000000
  -0.0044662632    0.0000000000    0.0000000000
   0.0076060944    0.0000000000    0.0000000000
   0.0076060944    0.0000000000    0.0000000000
