phonopy:
  version: 2.12.0
  frequency_unit_conversion_factor: 15.633302
  symmetry_tolerance: 1.00000e-05
  nac_unit_conversion_factor: 14.399652
  configuration:
    fc_symmetry: ".TRUE."
    nac: ".TRUE."
    dos: ".TRUE."
    mesh: "50"
    hdf5: ".TRUE."

physical_unit:
  atomic_mass: "AMU"
  length: "angstrom"
  force_constants: "eV/angstrom^2"

space_group:
  type: "F-43m"
  number: 216
  Hall_symbol: "F -4 2 3"

primitive_matrix:
- [  0.000000000000000,  0.500000000000000,  0.500000000000000 ]
- [  0.500000000000000,  0.000000000000000,  0.500000000000000 ]
- [  0.500000000000000,  0.500000000000000,  0.000000000000000 ]

supercell_matrix:
- [   1,   0,   0 ]
- [   0,   1,   0 ]
- [   0,   0,   1 ]

primitive_cell:
  lattice:
  - [     0.000000000000000,     2.839351150689400,     2.839351150689400 ] # a
  - [     2.839351150689400,     0.000000000000000,     2.839351150689400 ] # b
  - [     2.839351150689400,     2.839351150689400,     0.000000000000000 ] # c
  points:
  - symbol: Al # 1
    coordinates: [  0.000000000000000,  0.000000000000000,  0.000000000000000 ]
    mass: 26.981539
  - symbol: As # 2
    coordinates: [  0.250000002562205,  0.250000002562205,  0.250000002562205 ]
    mass: 74.921600
  reciprocal_lattice: # without 2pi
  - [    -0.176096570471250,     0.176096570471250,     0.176096570471250 ] # a*
  - [     0.176096570471250,    -0.176096570471250,     0.176096570471250 ] # b*
  - [     0.176096570471250,     0.176096570471250,    -0.176096570471250 ] # c*

unit_cell:
  lattice:
  - [     5.678702301378800,     0.000000000000000,     0.000000000000000 ] # a
  - [     0.000000000000000,     5.678702301378800,     0.000000000000000 ] # b
  - [     0.000000000000000,     0.000000000000000,     5.678702301378800 ] # c
  points:
  - symbol: Al # 1
    coordinates: [  0.000000000000000,  0.000000000000000,  0.000000000000000 ]
    mass: 26.981539
    reduced_to: 1
  - symbol: Al # 2
    coordinates: [  0.000000000000000,  0.500000000000000,  0.500000000000000 ]
    mass: 26.981539
    reduced_to: 1
  - symbol: Al # 3
    coordinates: [  0.500000000000000,  0.000000000000000,  0.500000000000000 ]
    mass: 26.981539
    reduced_to: 1
  - symbol: Al # 4
    coordinates: [  0.500000000000000,  0.500000000000000,  0.000000000000000 ]
    mass: 26.981539
    reduced_to: 1
  - symbol: As # 5
    coordinates: [  0.250000002562205,  0.250000002562205,  0.250000002562205 ]
    mass: 74.921600
    reduced_to: 5
  - symbol: As # 6
    coordinates: [  0.250000002562205,  0.749999997437795,  0.749999997437795 ]
    mass: 74.921600
    reduced_to: 5
  - symbol: As # 7
    coordinates: [  0.749999997437795,  0.749999997437795,  0.250000002562205 ]
    mass: 74.921600
    reduced_to: 5
  - symbol: As # 8
    coordinates: [  0.749999997437795,  0.250000002562205,  0.749999997437795 ]
    mass: 74.921600
    reduced_to: 5

supercell:
  lattice:
  - [     5.678702301378800,     0.000000000000000,     0.000000000000000 ] # a
  - [     0.000000000000000,     5.678702301378800,     0.000000000000000 ] # b
  - [     0.000000000000000,     0.000000000000000,     5.678702301378800 ] # c
  points:
  - symbol: Al # 1
    coordinates: [  0.000000000000000,  0.000000000000000,  0.000000000000000 ]
    mass: 26.981539
    reduced_to: 1
  - symbol: Al # 2
    coordinates: [  0.000000000000000,  0.500000000000000,  0.500000000000000 ]
    mass: 26.981539
    reduced_to: 1
  - symbol: Al # 3
    coordinates: [  0.500000000000000,  0.000000000000000,  0.500000000000000 ]
    mass: 26.981539
    reduced_to: 1
  - symbol: Al # 4
    coordinates: [  0.500000000000000,  0.500000000000000,  0.000000000000000 ]
    mass: 26.981539
    reduced_to: 1
  - symbol: As # 5
    coordinates: [  0.250000002562205,  0.250000002562205,  0.250000002562205 ]
    mass: 74.921600
    reduced_to: 5
  - symbol: As # 6
    coordinates: [  0.250000002562205,  0.749999997437795,  0.749999997437795 ]
    mass: 74.921600
    reduced_to: 5
  - symbol: As # 7
    coordinates: [  0.749999997437795,  0.749999997437795,  0.250000002562205 ]
    mass: 74.921600
    reduced_to: 5
  - symbol: As # 8
    coordinates: [  0.749999997437795,  0.250000002562205,  0.749999997437795 ]
    mass: 74.921600
    reduced_to: 5
